[Molden Format]
[Atoms] AU
   C     1    6     -4.1018061811     0.2078528190     0.5762538316
   C     2    6     -4.2782980535    -2.4086196672     0.7611915647
   C     3    6     -1.7735468664     1.3441179266    -0.0403174087
   C     4    6     -2.1576533766    -3.9237671089     0.3359786864
   C     5    6      0.1742808043    -2.8383873690    -0.2831161064
   C     6    6      0.3439765530    -0.2066341509    -0.4577975740
   H     7    1      2.1433908267     0.6687352992    -0.9154588714
   C     8    6     -1.5655822848     4.0308012003    -0.2421160360
   H     9    1     -5.7430490911     1.3944369274     0.9025169441
   H    10    1     -6.0766034315    -3.2784370782     1.2383772197
   H    11    1     -2.3163730855    -5.9678338151     0.4808382403
   C    12    6     -1.3924521612     6.3085592629    -0.4183510044
   C    13    6     -1.1814660619     9.0500295505    -0.6372004787
   H    14    1     -1.2325015840     9.6541666960    -2.6204511698
   H    15    1      0.5965588503     9.7358503164     0.1788661028
   H    16    1     -2.7347404968    10.0058993857     0.3477688274
   C    17    6      2.4896417162    -4.4759347038    -0.7683730126
   H    18    1      1.9524908326    -6.4674305099    -0.5256427467
   C    19    6      4.6793709968    -3.8701029485     0.9548198627
   H    20    1      3.1006783860    -4.2675760573    -2.7410808695
   C    21    6      6.9745740189    -3.1718393645     0.1817233456
   H    22    1      4.2917890605    -4.0213038848     2.9732498331
   H    23    1      7.4342499606    -2.9911575428    -1.8150541278
   H    24    1      8.4850029332    -2.7627672395     1.5117620821
[GTO]
    1  0
  s      6  0
      3047.5249000000         0.0018347002
       457.3695100000         0.0140373012
       103.9486900000         0.0688426061
        29.2101550000         0.2321844206
         9.2866630000         0.4679413416
         3.1639270000         0.3623120322
  s      3  0
         7.8682724000        -0.1193324086
         1.8812885000        -0.1608542116
         0.5442493000         1.1434564826
  p      3  0
         7.8682724000         0.0689990956
         1.8812885000         0.3164239798
         0.5442493000         0.7443082524
  s      1  0
         0.1687144000         1.0000000000
  p      1  0
         0.1687144000         1.0000000000
  d      1  0
         0.8000000000         1.0000000000

    2  0
  s      6  0
      3047.5249000000         0.0018347002
       457.3695100000         0.0140373012
       103.9486900000         0.0688426061
        29.2101550000         0.2321844206
         9.2866630000         0.4679413416
         3.1639270000         0.3623120322
  s      3  0
         7.8682724000        -0.1193324086
         1.8812885000        -0.1608542116
         0.5442493000         1.1434564826
  p      3  0
         7.8682724000         0.0689990956
         1.8812885000         0.3164239798
         0.5442493000         0.7443082524
  s      1  0
         0.1687144000         1.0000000000
  p      1  0
         0.1687144000         1.0000000000
  d      1  0
         0.8000000000         1.0000000000

    3  0
  s      6  0
      3047.5249000000         0.0018347002
       457.3695100000         0.0140373012
       103.9486900000         0.0688426061
        29.2101550000         0.2321844206
         9.2866630000         0.4679413416
         3.1639270000         0.3623120322
  s      3  0
         7.8682724000        -0.1193324086
         1.8812885000        -0.1608542116
         0.5442493000         1.1434564826
  p      3  0
         7.8682724000         0.0689990956
         1.8812885000         0.3164239798
         0.5442493000         0.7443082524
  s      1  0
         0.1687144000         1.0000000000
  p      1  0
         0.1687144000         1.0000000000
  d      1  0
         0.8000000000         1.0000000000

    4  0
  s      6  0
      3047.5249000000         0.0018347002
       457.3695100000         0.0140373012
       103.9486900000         0.0688426061
        29.2101550000         0.2321844206
         9.2866630000         0.4679413416
         3.1639270000         0.3623120322
  s      3  0
         7.8682724000        -0.1193324086
         1.8812885000        -0.1608542116
         0.5442493000         1.1434564826
  p      3  0
         7.8682724000         0.0689990956
         1.8812885000         0.3164239798
         0.5442493000         0.7443082524
  s      1  0
         0.1687144000         1.0000000000
  p      1  0
         0.1687144000         1.0000000000
  d      1  0
         0.8000000000         1.0000000000

    5  0
  s      6  0
      3047.5249000000         0.0018347002
       457.3695100000         0.0140373012
       103.9486900000         0.0688426061
        29.2101550000         0.2321844206
         9.2866630000         0.4679413416
         3.1639270000         0.3623120322
  s      3  0
         7.8682724000        -0.1193324086
         1.8812885000        -0.1608542116
         0.5442493000         1.1434564826
  p      3  0
         7.8682724000         0.0689990956
         1.8812885000         0.3164239798
         0.5442493000         0.7443082524
  s      1  0
         0.1687144000         1.0000000000
  p      1  0
         0.1687144000         1.0000000000
  d      1  0
         0.8000000000         1.0000000000

    6  0
  s      6  0
      3047.5249000000         0.0018347002
       457.3695100000         0.0140373012
       103.9486900000         0.0688426061
        29.2101550000         0.2321844206
         9.2866630000         0.4679413416
         3.1639270000         0.3623120322
  s      3  0
         7.8682724000        -0.1193324086
         1.8812885000        -0.1608542116
         0.5442493000         1.1434564826
  p      3  0
         7.8682724000         0.0689990956
         1.8812885000         0.3164239798
         0.5442493000         0.7443082524
  s      1  0
         0.1687144000         1.0000000000
  p      1  0
         0.1687144000         1.0000000000
  d      1  0
         0.8000000000         1.0000000000

    7  0
  s      3  0
        18.7311370000         0.0334945995
         2.8253937000         0.2347269467
         0.6401217000         0.8137573184
  s      1  0
         0.1612778000         1.0000000000

    8  0
  s      6  0
      3047.5249000000         0.0018347002
       457.3695100000         0.0140373012
       103.9486900000         0.0688426061
        29.2101550000         0.2321844206
         9.2866630000         0.4679413416
         3.1639270000         0.3623120322
  s      3  0
         7.8682724000        -0.1193324086
         1.8812885000        -0.1608542116
         0.5442493000         1.1434564826
  p      3  0
         7.8682724000         0.0689990956
         1.8812885000         0.3164239798
         0.5442493000         0.7443082524
  s      1  0
         0.1687144000         1.0000000000
  p      1  0
         0.1687144000         1.0000000000
  d      1  0
         0.8000000000         1.0000000000

    9  0
  s      3  0
        18.7311370000         0.0334945995
         2.8253937000         0.2347269467
         0.6401217000         0.8137573184
  s      1  0
         0.1612778000         1.0000000000

   10  0
  s      3  0
        18.7311370000         0.0334945995
         2.8253937000         0.2347269467
         0.6401217000         0.8137573184
  s      1  0
         0.1612778000         1.0000000000

   11  0
  s      3  0
        18.7311370000         0.0334945995
         2.8253937000         0.2347269467
         0.6401217000         0.8137573184
  s      1  0
         0.1612778000         1.0000000000

   12  0
  s      6  0
      3047.5249000000         0.0018347002
       457.3695100000         0.0140373012
       103.9486900000         0.0688426061
        29.2101550000         0.2321844206
         9.2866630000         0.4679413416
         3.1639270000         0.3623120322
  s      3  0
         7.8682724000        -0.1193324086
         1.8812885000        -0.1608542116
         0.5442493000         1.1434564826
  p      3  0
         7.8682724000         0.0689990956
         1.8812885000         0.3164239798
         0.5442493000         0.7443082524
  s      1  0
         0.1687144000         1.0000000000
  p      1  0
         0.1687144000         1.0000000000
  d      1  0
         0.8000000000         1.0000000000

   13  0
  s      6  0
      3047.5249000000         0.0018347002
       457.3695100000         0.0140373012
       103.9486900000         0.0688426061
        29.2101550000         0.2321844206
         9.2866630000         0.4679413416
         3.1639270000         0.3623120322
  s      3  0
         7.8682724000        -0.1193324086
         1.8812885000        -0.1608542116
         0.5442493000         1.1434564826
  p      3  0
         7.8682724000         0.0689990956
         1.8812885000         0.3164239798
         0.5442493000         0.7443082524
  s      1  0
         0.1687144000         1.0000000000
  p      1  0
         0.1687144000         1.0000000000
  d      1  0
         0.8000000000         1.0000000000

   14  0
  s      3  0
        18.7311370000         0.0334945995
         2.8253937000         0.2347269467
         0.6401217000         0.8137573184
  s      1  0
         0.1612778000         1.0000000000

   15  0
  s      3  0
        18.7311370000         0.0334945995
         2.8253937000         0.2347269467
         0.6401217000         0.8137573184
  s      1  0
         0.1612778000         1.0000000000

   16  0
  s      3  0
        18.7311370000         0.0334945995
         2.8253937000         0.2347269467
         0.6401217000         0.8137573184
  s      1  0
         0.1612778000         1.0000000000

   17  0
  s      6  0
      3047.5249000000         0.0018347002
       457.3695100000         0.0140373012
       103.9486900000         0.0688426061
        29.2101550000         0.2321844206
         9.2866630000         0.4679413416
         3.1639270000         0.3623120322
  s      3  0
         7.8682724000        -0.1193324086
         1.8812885000        -0.1608542116
         0.5442493000         1.1434564826
  p      3  0
         7.8682724000         0.0689990956
         1.8812885000         0.3164239798
         0.5442493000         0.7443082524
  s      1  0
         0.1687144000         1.0000000000
  p      1  0
         0.1687144000         1.0000000000
  d      1  0
         0.8000000000         1.0000000000

   18  0
  s      3  0
        18.7311370000         0.0334945995
         2.8253937000         0.2347269467
         0.6401217000         0.8137573184
  s      1  0
         0.1612778000         1.0000000000

   19  0
  s      6  0
      3047.5249000000         0.0018347002
       457.3695100000         0.0140373012
       103.9486900000         0.0688426061
        29.2101550000         0.2321844206
         9.2866630000         0.4679413416
         3.1639270000         0.3623120322
  s      3  0
         7.8682724000        -0.1193324086
         1.8812885000        -0.1608542116
         0.5442493000         1.1434564826
  p      3  0
         7.8682724000         0.0689990956
         1.8812885000         0.3164239798
         0.5442493000         0.7443082524
  s      1  0
         0.1687144000         1.0000000000
  p      1  0
         0.1687144000         1.0000000000
  d      1  0
         0.8000000000         1.0000000000

   20  0
  s      3  0
        18.7311370000         0.0334945995
         2.8253937000         0.2347269467
         0.6401217000         0.8137573184
  s      1  0
         0.1612778000         1.0000000000

   21  0
  s      6  0
      3047.5249000000         0.0018347002
       457.3695100000         0.0140373012
       103.9486900000         0.0688426061
        29.2101550000         0.2321844206
         9.2866630000         0.4679413416
         3.1639270000         0.3623120322
  s      3  0
         7.8682724000        -0.1193324086
         1.8812885000        -0.1608542116
         0.5442493000         1.1434564826
  p      3  0
         7.8682724000         0.0689990956
         1.8812885000         0.3164239798
         0.5442493000         0.7443082524
  s      1  0
         0.1687144000         1.0000000000
  p      1  0
         0.1687144000         1.0000000000
  d      1  0
         0.8000000000         1.0000000000

   22  0
  s      3  0
        18.7311370000         0.0334945995
         2.8253937000         0.2347269467
         0.6401217000         0.8137573184
  s      1  0
         0.1612778000         1.0000000000

   23  0
  s      3  0
        18.7311370000         0.0334945995
         2.8253937000         0.2347269467
         0.6401217000         0.8137573184
  s      1  0
         0.1612778000         1.0000000000

   24  0
  s      3  0
        18.7311370000         0.0334945995
         2.8253937000         0.2347269467
         0.6401217000         0.8137573184
  s      1  0
         0.1612778000         1.0000000000

[5D]
[9G]
[MO]
Sym=        a    
Ene=  -0.10203400181963E+02
Spin=       Alpha
Occup=       2.0000000000
     1    0.009180819403
     2   -0.001424121306
     3   -0.001079246660
     4   -0.000529048090
     5    0.000285861162
     6    0.009017761457
     7    0.003684191073
     8    0.000589479288
     9   -0.000911691304
    10    0.000549446775
    11    0.000453967686
    12    0.000218740370
    13   -0.000649269288
    14   -0.000819694450
    15    0.000081500472
    16   -0.000107530907
    17   -0.000080437162
    18   -0.000166137841
    19    0.000028521812
    20   -0.002431225607
    21   -0.001249334153
    22   -0.000294435293
    23    0.000315541112
    24   -0.000055581414
    25   -0.000033327922
    26    0.000005344897
    27    0.000045085456
    28   -0.000036345334
    29    0.995019568715
    30    0.036743876004
    31    0.000039358333
    32    0.000354101784
    33   -0.000031413202
    34   -0.028901745493
    35    0.000052907721
    36    0.002436821483
    37   -0.000139503444
    38   -0.000750951349
    39   -0.000298127901
    40   -0.000083749931
    41   -0.000123731942
    42   -0.000001105283
    43   -0.000341026538
    44   -0.000380809430
    45   -0.000014283251
    46   -0.000131579334
    47    0.000011886848
    48    0.002160530961
    49   -0.000140008825
    50    0.001610931953
    51   -0.000056844643
    52   -0.000053020880
    53   -0.000022385151
    54   -0.000002559267
    55   -0.000000486414
    56   -0.000012777948
    57    0.000098469715
    58   -0.000060299996
    59    0.000091001794
    60   -0.000147334329
    61   -0.000014776407
    62   -0.002681346693
    63    0.000475439070
    64   -0.000797630642
    65   -0.000076561824
    66   -0.000037118951
    67   -0.000032543382
    68   -0.000015671703
    69    0.000054303591
    70    0.000066007382
    71    0.008476927029
    72   -0.001503238147
    73    0.001006752135
    74   -0.000746968729
    75   -0.000199718254
    76    0.009655379898
    77   -0.003469573510
    78    0.001218520935
    79    0.000756503877
    80    0.000597109038
    81    0.000286237519
    82   -0.000195774677
    83   -0.000337995966
    84    0.001005515226
    85   -0.000252997036
    86    0.000123283222
    87    0.003676261769
    88   -0.001919995998
    89    0.000065004384
    90    0.000851165284
    91   -0.000063554631
    92    0.014494657414
    93    0.000276995434
    94    0.003147354690
    95   -0.000257900346
    96    0.000986735192
    97    0.000089133921
    98    0.000232154142
    99    0.001421211587
   100   -0.000220154907
   101   -0.000246267231
   102    0.000247489856
   103   -0.000037155162
   104   -0.000112919302
   105    0.000058624358
   106    0.000474835837
   107    0.000336628535
   108    0.001030699648
   109   -0.000054070206
   110   -0.000739166267
   111    0.000059312263
   112   -0.006677206167
   113    0.000623188515
   114    0.008424207733
   115   -0.000653765420
   116   -0.000208465699
   117   -0.000009502915
   118   -0.000057652797
   119   -0.000340969026
   120    0.000051810438
   121   -0.000635133844
   122    0.000029895755
   123    0.000019827268
   124    0.000265826551
   125   -0.000021629180
   126   -0.004163142025
   127    0.000139180614
   128    0.001658577201
   129   -0.000136193089
   130    0.000061046988
   131    0.000002512250
   132    0.000017551797
   133    0.000104445784
   134   -0.000017508045
   135    0.000065566805
   136    0.000024380566
   137    0.000065914070
   138    0.000019347755
   139    0.000068888303
   140    0.000024371554
   141   -0.000168580999
   142   -0.000225130456
   143   -0.000012017186
   144   -0.000023518132
   145   -0.000001081155
   146    0.000642785436
   147   -0.000066532428
   148    0.000429255738
   149    0.000053935686
   150   -0.000009386479
   151    0.000003142356
   152    0.000012773105
   153   -0.000004181176
   154   -0.000033788253
   155   -0.000015091690
   156    0.000116224798
   157   -0.000071414884
   158   -0.000060037447
   159    0.000013419267
   160   -0.000007094130
   161    0.000023797391
   162    0.000004599097
   163    0.000155001193
   164    0.000028349887
   165   -0.000001341339
   166   -0.000013517437
   167   -0.000008444892
   168    0.000007157692
   169   -0.000008890255
   170   -0.000002967167
   171   -0.000049539093
   172   -0.000056379608
   173   -0.000010305101
   174    0.000002025066
   175    0.000004667529
   176   -0.000005813137
   177   -0.000001454108
   178   -0.000119948201
   179    0.000061969969
   180    0.000032584562
   181   -0.000016449438
   182   -0.000002158966
   183   -0.000002776379
   184    0.000001396768
   185   -0.000002854655
   186   -0.000000844366
   187    0.000008110495
   188    0.000002398285
   189    0.000002650545
   190   -0.000005896187
   191    0.000004205795
   192   -0.000018389664
Sym=        a    
Ene=  -0.10197279170776E+02
Spin=       Alpha
Occup=       2.0000000000
     1    0.000024535018
     2    0.000028623186
     3   -0.000002912532
     4    0.000004779714
     5    0.000000569767
     6   -0.000183192810
     7   -0.000235694142
     8    0.000225227291
     9    0.000044325546
    10    0.000011519654
    11    0.000007351838
    12   -0.000001261808
    13   -0.000010517200
    14    0.000008158247
    15    0.000034514649
    16    0.000055054681
    17    0.000011243642
    18    0.000015279518
    19   -0.000003502283
    20   -0.000071823601
    21   -0.000174830923
    22   -0.000053105462
    23    0.000044062693
    24    0.000013369196
    25    0.000006242354
    26    0.000002845032
    27   -0.000000277919
    28   -0.000006235164
    29    0.000698603057
    30    0.000096729259
    31   -0.000010264246
    32   -0.000122573522
    33    0.000009936881
    34   -0.002907402430
    35   -0.000197079689
    36   -0.002378437102
    37    0.000175965233
    38    0.000102617596
    39    0.000004993027
    40    0.000025220015
    41    0.000165305883
    42   -0.000025798270
    43    0.000015989199
    44    0.000011775920
    45    0.000002112895
    46    0.000017492524
    47   -0.000001696089
    48    0.000243370544
    49    0.000012649410
    50    0.000121061753
    51   -0.000008096547
    52    0.000003082447
    53    0.000002461063
    54   -0.000000636405
    55   -0.000004429941
    56    0.000003295018
    57    0.000056650715
    58    0.000042891089
    59   -0.000019337582
    60    0.000022547893
    61    0.000004246913
    62    0.000031938397
    63    0.000320947648
    64   -0.000169879345
    65   -0.000069986773
    66    0.000010434607
    67    0.000003845940
    68    0.000000939297
    69    0.000002879145
    70    0.000000357797
    71    0.000022838341
    72    0.000027882338
    73    0.000003559660
    74    0.000003374199
    75   -0.000000683422
    76   -0.000149308158
    77    0.000209498430
    78    0.000180342162
    79   -0.000058516844
    80    0.000010921932
    81    0.000007808834
    82    0.000000564409
    83   -0.000012003467
    84   -0.000000298378
    85   -0.000012118444
    86   -0.000130640619
    87    0.000406858980
    88    0.000912281264
    89    0.000061941004
    90    0.000816856241
    91   -0.000062235151
    92    0.004863213132
    93   -0.000212896525
    94   -0.002728403932
    95    0.000215448203
    96   -0.000259287524
    97   -0.000003632316
    98   -0.000066743529
    99   -0.000454420798
   100    0.000068786429
   101   -0.000013567885
   102   -0.000155471496
   103   -0.000008911256
   104   -0.000090339043
   105    0.000002264370
   106    0.000017775886
   107    0.004620047434
   108   -0.001514684653
   109   -0.000058741904
   110   -0.000758670095
   111    0.000061487251
   112    0.010019296644
   113    0.000624220163
   114    0.008088576087
   115   -0.000647773814
   116    0.000868482143
   117    0.000018471077
   118    0.000240401090
   119    0.001505251464
   120   -0.000232589045
   121    0.995303053366
   122    0.037751150788
   123   -0.000043050194
   124   -0.000554779463
   125    0.000043284225
   126   -0.036735924034
   127    0.000240143062
   128    0.003144314628
   129   -0.000245729876
   130   -0.000137490023
   131   -0.000003355598
   132   -0.000037402740
   133   -0.000236355885
   134    0.000036477485
   135   -0.000355852673
   136    0.005741862568
   137   -0.000358279165
   138    0.005743820876
   139   -0.000359707334
   140    0.005744269916
   141    0.000035135798
   142    0.000037521365
   143    0.000006849404
   144   -0.000004938177
   145   -0.000000571262
   146   -0.000311919262
   147    0.000098571351
   148   -0.000080144271
   149   -0.000031448890
   150    0.000002701579
   151    0.000000619606
   152   -0.000002032316
   153   -0.000000980273
   154    0.000005693257
   155    0.000009723625
   156    0.000006369994
   157    0.000016774951
   158    0.000009122449
   159   -0.000003186558
   160   -0.000000560286
   161   -0.000002505441
   162   -0.000006916397
   163   -0.000028964542
   164   -0.000004100587
   165    0.000000361774
   166    0.000000944319
   167    0.000001827721
   168   -0.000001947262
   169    0.000000735850
   170    0.000001272089
   171    0.000008531931
   172    0.000005045559
   173   -0.000003271954
   174   -0.000004569456
   175    0.000000983087
   176   -0.000002427934
   177    0.000000399546
   178    0.000029712923
   179   -0.000014021297
   180    0.000002185127
   181    0.000005600158
   182    0.000000172180
   183   -0.000000285270
   184   -0.000000858826
   185    0.000000852252
   186   -0.000000183211
   187   -0.000000807911
   188    0.000000122052
   189   -0.000001355885
   190    0.000000721707
   191   -0.000000999200
   192    0.000000518665
Sym=        a    
Ene=  -0.10190995886521E+02
Spin=       Alpha
Occup=       2.0000000000
     1   -0.000790114209
     2   -0.000335696952
     3   -0.000107619688
     4    0.000087571849
     5    0.000020419810
     6    0.001721613248
     7    0.000643186333
     8   -0.000739361613
     9   -0.000111798383
    10   -0.000030479141
    11   -0.000013492088
    12   -0.000018168860
    13   -0.000032802552
    14    0.000024842041
    15    0.000461316072
    16   -0.000124194062
    17   -0.000183724162
    18    0.000066837539
    19    0.000054374283
    20   -0.001869078802
    21   -0.000870499624
    22   -0.001004985234
    23    0.000163945505
    24   -0.000053414583
    25   -0.000023396354
    26   -0.000008303750
    27   -0.000061186255
    28    0.000020445314
    29   -0.000214186914
    30    0.000074486176
    31   -0.000083781291
    32    0.000195071993
    33   -0.000006362360
    34   -0.006737736878
    35   -0.000561028126
    36   -0.002322915123
    37    0.000360847378
    38    0.000019649931
    39   -0.000018012564
    40   -0.000013624739
    41    0.000127598803
    42    0.000081912372
    43    0.021628891745
    44   -0.001087068668
    45   -0.001231778091
    46   -0.000492517464
    47    0.000273715829
    48    0.008735411008
    49    0.003235516111
    50    0.002702076048
    51   -0.000702000980
    52    0.000549684379
    53    0.000501783205
    54    0.000206790385
    55   -0.000739239529
    56   -0.000764783391
    57    0.994599254080
    58    0.036951916797
    59   -0.000123431079
    60    0.000261957888
    61    0.000142737042
    62   -0.030851129671
    63    0.002309092507
    64   -0.002935129514
    65   -0.000500771963
    66   -0.000574162840
    67   -0.000236817241
    68   -0.000169812121
    69   -0.000062817357
    70    0.000271883510
    71    0.019673739578
    72   -0.001182800300
    73    0.000094414543
    74    0.001318296211
    75   -0.000028083730
    76    0.010619819594
    77   -0.001246128041
    78   -0.004101755138
    79    0.000368394760
    80    0.000618262340
    81    0.000016202885
    82    0.000133242346
    83    0.001060188381
    84   -0.000157485628
    85   -0.000274771315
    86    0.000109839458
    87   -0.000095062118
    88   -0.000165791946
    89   -0.000028256180
    90    0.000098770911
    91    0.000003018075
    92   -0.002144220557
    93   -0.000218046271
    94   -0.007436032092
    95    0.000443191355
    96   -0.000033423257
    97   -0.000004680428
    98   -0.000000361645
    99   -0.000029955961
   100   -0.000002617834
   101    0.000021087465
   102    0.000249469944
   103   -0.000053051213
   104   -0.000144096514
   105   -0.000293476413
   106    0.000447264626
   107    0.000023210690
   108   -0.000065401783
   109    0.000003416226
   110   -0.000011773599
   111   -0.000002489592
   112    0.006316727805
   113   -0.000488245224
   114   -0.004236242806
   115    0.000394756090
   116   -0.000012788616
   117   -0.000002004179
   118   -0.000008587305
   119   -0.000019908169
   120    0.000020804759
   121   -0.000054852906
   122   -0.000007452394
   123   -0.000010073736
   124   -0.000045846691
   125    0.000006499011
   126    0.001415971678
   127    0.000039136370
   128   -0.000537500237
   129    0.000011400498
   130    0.000003224759
   131    0.000006237816
   132    0.000002728092
   133    0.000002628603
   134   -0.000006457980
   135   -0.000021017041
   136   -0.000011164768
   137   -0.000024901190
   138   -0.000019700033
   139   -0.000007992833
   140    0.000026236786
   141    0.016165103630
   142    0.000609278300
   143    0.000463194941
   144   -0.000359369128
   145   -0.000090323413
   146   -0.001099363238
   147   -0.002440288803
   148    0.000485682406
   149   -0.001709584025
   150    0.000596972014
   151    0.000151070654
   152   -0.000288978748
   153   -0.000350472968
   154    0.000857931204
   155   -0.000015103429
   156    0.000022815710
   157   -0.002148941140
   158   -0.000933836311
   159    0.000431194349
   160   -0.000022820446
   161    0.000027217474
   162    0.001767644730
   163   -0.004722588214
   164   -0.000699710792
   165   -0.000708098085
   166    0.000109035317
   167    0.000141413678
   168    0.000077521724
   169    0.000022866444
   170   -0.000146753124
   171   -0.000447316008
   172    0.000588380589
   173   -0.000044289479
   174   -0.000074274897
   175   -0.000153826629
   176    0.000025468808
   177   -0.000043758191
   178    0.002870715765
   179   -0.000698256706
   180   -0.000619602337
   181    0.001526816098
   182   -0.000001804162
   183   -0.000053416677
   184   -0.000021314344
   185    0.000045696234
   186    0.000078790655
   187   -0.000416424994
   188    0.000073484906
   189    0.000079430995
   190    0.000479121502
   191   -0.000172220544
   192   -0.000356178526
Sym=        a    
Ene=  -0.10185856688027E+02
Spin=       Alpha
Occup=       2.0000000000
     1    0.000041125383
     2    0.000113646007
     3   -0.000025294869
     4    0.000031453010
     5    0.000008420584
     6   -0.002473031361
     7   -0.001797005928
     8    0.002704518656
     9    0.000264583687
    10    0.000020937009
    11    0.000011416416
    12   -0.000019056138
    13   -0.000046958129
    14    0.000058859968
    15   -0.000726302290
    16   -0.000339029405
    17   -0.000008430481
    18    0.000016318358
    19    0.000014593352
    20    0.004059670224
    21    0.001963059731
    22    0.000920333864
    23   -0.000571780323
    24   -0.000081846226
    25   -0.000043379625
    26    0.000008138655
    27    0.000008280956
    28   -0.000062745656
    29    0.000123759369
    30   -0.000249522618
    31   -0.000057878565
    32    0.000107410530
    33    0.000000445864
    34   -0.000263781182
    35    0.002601676328
    36   -0.008470200893
    37   -0.000069918711
    38   -0.000061675025
    39   -0.000046765223
    40    0.000031654650
    41    0.000150397270
    42   -0.000136761242
    43   -0.002514122611
    44   -0.000336309772
    45   -0.000269530240
    46    0.000176298019
    47    0.000016760355
    48   -0.002306977759
    49    0.000236589542
    50   -0.001468947172
    51    0.000080278280
    52   -0.000058491640
    53    0.000021439531
    54   -0.000061878065
    55   -0.000228473294
    56    0.000146724405
    57   -0.015768982768
    58   -0.001302261472
    59   -0.000431069654
    60    0.000457502627
    61    0.000118701725
    62    0.009164746479
    63    0.003382551895
    64   -0.004659169818
    65   -0.000260906964
    66    0.000360812427
    67    0.000220698329
    68   -0.000230689633
    69   -0.000170110448
    70    0.000779419754
    71   -0.000912526405
    72   -0.000044042685
    73   -0.000234363745
    74    0.000214389654
    75    0.000084774216
    76   -0.003797849447
    77    0.004047689851
    78   -0.002648583827
    79   -0.000999962920
    80   -0.000054631565
    81   -0.000011464095
    82   -0.000067084700
    83   -0.000076050190
    84    0.000280469353
    85   -0.000303500772
    86   -0.000527970271