[Molden Format]
[Atoms] AU
   O     1    8      0.0000000006    -0.1351250663     0.0000000000
   H     2    1      1.4411406570     0.9935282677     0.0000000000
   H     3    1     -1.4411406576     0.9935282674    -0.0000000000
[GTO]
    1  0
  s      6  0
      5484.6717000000         0.0018310998
       825.2349500000         0.0139500985
       188.0469600000         0.0684450927
        52.9645000000         0.2327142753
        16.8975700000         0.4701929501
         5.7996353000         0.3585208619
  s      3  0
        15.5396160000        -0.1107775038
         3.5999336000        -0.1480263051
         1.0137618000         1.1307670390
  p      3  0
        15.5396160000         0.0708742995
         3.5999336000         0.3397527978
         1.0137618000         0.7271585953
  s      1  0
         0.2700058000         1.0000000000
  p      1  0
         0.2700058000         1.0000000000
  d      1  0
         0.8000000000         1.0000000000

    2  0
  s      3  0
        18.7311370000         0.0334945995
         2.8253937000         0.2347269467
         0.6401217000         0.8137573184
  s      1  0
         0.1612778000         1.0000000000

    3  0
  s      3  0
        18.7311370000         0.0334945995
         2.8253937000         0.2347269467
         0.6401217000         0.8137573184
  s      1  0
         0.1612778000         1.0000000000

[5D]
[9G]
[MO]
Sym=        a    
Ene=  -0.19129652274146E+02
Spin=       Alpha
Occup=       2.0000000000
     1    0.995048755569
     2    0.027895669599
     3    0.000000000000
     4    0.001687716464
     5    0.000000000000
     6   -0.013161458971
     7   -0.000000000000
     8   -0.002604407921
     9   -0.000000000000
    10    0.000252305462
    11    0.000000000000
    12    0.000000000000
    13   -0.000105782034
    14    0.000000000001
    15    0.000289474008
    16    0.002984448805
    17    0.000289474010
    18    0.002984448799
Sym=        a    
Ene=  -0.99674195679127E+00
Spin=       Alpha
Occup=       2.0000000000
     1   -0.211759810016
     2    0.465183769056
     3    0.000000000114
     4    0.127017174959
     5   -0.000000000000
     6    0.467382976087
     7    0.000000000002
     8    0.063736929669
     9    0.000000000000
    10   -0.019053074099
    11    0.000000000000
    12   -0.000000000000
    13    0.001743770604
    14    0.000000000016
    15    0.139059050373
    16    0.001200212052
    17    0.139059050136
    18    0.001200212074
Sym=        a    
Ene=  -0.51678124867303E+00
Spin=       Alpha
Occup=       2.0000000000
     1    0.000000000069
     2   -0.000000000140
     3    0.516971948192
     4    0.000000000328
     5    0.000000000000
     6   -0.000000000331
     7    0.269651126489
     8    0.000000000124
     9    0.000000000000
    10   -0.000000000002
    11    0.000000000000
    12   -0.000000000000
    13   -0.000000000023
    14    0.041245069652
    15    0.237638121544
    16    0.141853674143
    17   -0.237638121509
    18   -0.141853674236
Sym=        a    
Ene=  -0.37049407105220E+00
Spin=       Alpha
Occup=       2.0000000000
     1    0.083228786577
     2   -0.187158965444
     3   -0.000000000272
     4    0.551574557898
     5    0.000000000000
     6   -0.346228218109
     7   -0.000000000209
     8    0.380326220690
     9    0.000000000000
    10   -0.017257250114
    11    0.000000000000
    12    0.000000000000
    13   -0.030803150965
    14   -0.000000000018
    15    0.143332493365
    16    0.101058746755
    17    0.143332493468
    18    0.101058746937
Sym=        a    
Ene=  -0.29019518196666E+00
Spin=       Alpha
Occup=       2.0000000000
     1   -0.000000000000
     2    0.000000000000
     3   -0.000000000000
     4   -0.000000000000
     5    0.644220816715
     6    0.000000000000
     7   -0.000000000000
     8   -0.000000000000
     9    0.506434063343
    10   -0.000000000000
    11    0.000000000011
    12    0.035446837341
    13    0.000000000000
    14   -0.000000000000
    15   -0.000000000000
    16    0.000000000000
    17   -0.000000000000
    18   -0.000000000000
Sym=        a    
Ene=   0.65263598680428E-01
Spin=       Alpha
Occup=       0.0000000000
     1   -0.089687867991
     2    0.152483958524
     3   -0.000000000744
     4    0.280241922852
     5   -0.000000000000
     6    1.095207644313
     7   -0.000000001040
     8    0.459713520339
     9   -0.000000000000
    10   -0.014187098808
    11    0.000000000000
    12   -0.000000000000
    13   -0.010103374935
    14   -0.000000000012
    15   -0.096872691185
    16   -0.938836219670
    17   -0.096872691618
    18   -0.938836221816
Sym=        a    
Ene=   0.14886862375606E+00
Spin=       Alpha
Occup=       0.0000000000
     1    0.000000000121
     2   -0.000000000167
     3   -0.413358198651
     4   -0.000000000366
     5   -0.000000000000
     6   -0.000000002144
     7   -0.759608079387
     8   -0.000000000854
     9   -0.000000000000
    10    0.000000000035
    11   -0.000000000000
    12   -0.000000000000
    13   -0.000000000006
    14   -0.018530431146
    15    0.106770967813
    16    1.277793140480
    17   -0.106770967845
    18   -1.277793137340
Sym=        a    
Ene=   0.77379197707758E+00
Spin=       Alpha
Occup=       0.0000000000
     1   -0.000000000106
     2    0.000000000732
     3   -0.173565504545
     4    0.000000001544
     5    0.000000000000
     6   -0.000000001592
     7   -0.431127608015
     8   -0.000000001186
     9   -0.000000000000
    10    0.000000000404
    11   -0.000000000000
    12    0.000000000000
    13   -0.000000000405
    14    0.196256789383
    15    0.840533354941
    16   -0.653801964925
    17   -0.840533359441
    18    0.653801969305
Sym=        a    
Ene=   0.86112594396452E+00
Spin=       Alpha
Occup=       0.0000000000
     1   -0.037152855850
     2    0.175805104279
     3   -0.000000000145
     4    0.682879327055
     5   -0.000000000000
     6   -0.213788618923
     7    0.000000002791
     8   -0.349341353290
     9    0.000000000000
    10    0.137058108425
    11    0.000000000000
    12    0.000000000000
    13   -0.085339796195
    14   -0.000000000752
    15   -0.731128107047
    16    0.571034818541
    17   -0.731128102035
    18    0.571034816675
Sym=        a    
Ene=   0.89175426265170E+00
Spin=       Alpha
Occup=       0.0000000000
     1   -0.000000000000
     2    0.000000000000
     3   -0.000000000000
     4    0.000000000000
     5    0.959674820683
     6   -0.000000000000
     7    0.000000000000
     8   -0.000000000000
     9   -1.038433139695
    10   -0.000000000000
    11    0.000000000008
    12   -0.016425727739
    13    0.000000000000
    14    0.000000000000
    15   -0.000000000000
    16    0.000000000000
    17    0.000000000000
    18   -0.000000000000
Sym=        a    
Ene=   0.93452005456269E+00
Spin=       Alpha
Occup=       0.0000000000
     1   -0.069791438549
     2    0.452413009193
     3   -0.000000000338
     4   -0.680986987839
     5    0.000000000000
     6   -0.121588168032
     7    0.000000001331
     8    1.124500503859
     9   -0.000000000000
    10    0.097401546769
    11    0.000000000000
    12   -0.000000000000
    13   -0.092034362557
    14   -0.000000000106
    15   -0.506726026009
    16    0.100661468456
    17   -0.506726025324
    18    0.100661470011
Sym=        a    
Ene=   0.10669469050706E+01
Spin=       Alpha
Occup=       0.0000000000
     1    0.000000000059
     2   -0.000000000445
     3   -0.989387949654
     4   -0.000000000230
     5   -0.000000000000
     6    0.000000000725
     7    1.629449642591
     8   -0.000000000016
     9    0.000000000000
    10   -0.000000000309
    11    0.000000000000
    12    0.000000000000
    13    0.000000000231
    14   -0.016502402156
    15    0.018434482319
    16   -0.926101326213
    17   -0.018434480611
    18    0.926101324953
Sym=        a    
Ene=   0.13837507730467E+01
Spin=       Alpha
Occup=       0.0000000000
     1    0.063714012934
     2   -1.587986687246
     3   -0.000000000026
     4   -0.208514443131
     5    0.000000000000
     6    2.505519892479
     7    0.000000000364
     8    0.713131430026
     9   -0.000000000000
    10    0.203308762666
    11   -0.000000000000
    12   -0.000000000000
    13   -0.176015429747
    14    0.000000000015
    15   -0.228747524423
    16   -0.636862592575
    17   -0.228747524562
    18   -0.636862590895
Sym=        a    
Ene=   0.17310984947330E+01
Spin=       Alpha
Occup=       0.0000000000
     1    0.000958951497
     2   -0.128833395328
     3    0.000000000034
     4   -0.009775916958
     5   -0.000000000000
     6    0.251121712867
     7   -0.000000000058
     8    0.148892765248
     9    0.000000000000
    10    0.378694213333
    11   -0.000000000000
    12   -0.000000000000
    13    0.918704365948
    14    0.000000000641
    15   -0.084558352400
    16   -0.048519553521
    17   -0.084558352433
    18   -0.048519553405
Sym=        a    
Ene=   0.17468862578600E+01
Spin=       Alpha
Occup=       0.0000000000
     1   -0.000000000000
     2    0.000000000000
     3   -0.000000000000
     4    0.000000000000
     5    0.000000000024
     6   -0.000000000000
     7    0.000000000000
     8   -0.000000000000
     9    0.000000000043
    10   -0.000000000000
    11   -1.000000000000
    12   -0.000000001294
    13   -0.000000000000
    14   -0.000000000000
    15    0.000000000000
    16    0.000000000000
    17    0.000000000000
    18    0.000000000000
Sym=        a    
Ene=   0.17808668011280E+01
Spin=       Alpha
Occup=       0.0000000000
     1    0.000000000000
     2   -0.000000000000
     3    0.000000000000
     4   -0.000000000000
     5   -0.007077636479
     6    0.000000000000
     7   -0.000000000000
     8    0.000000000000
     9   -0.035035252957
    10    0.000000000000
    11   -0.000000001295
    12    0.999236567181
    13    0.000000000000
    14   -0.000000000000
    15   -0.000000000000
    16    0.000000000000
    17   -0.000000000000
    18   -0.000000000000
Sym=        a    
Ene=   0.22882930596879E+01
Spin=       Alpha
Occup=       0.0000000000
     1   -0.016809622823
     2   -0.581290534296
     3    0.000000000408
     4   -0.056297514215
     5    0.000000000000
     6    1.351641555730
     7   -0.000000001122
     8    0.726604481362
     9    0.000000000000
    10   -1.011381063341
    11    0.000000000000
    12    0.000000000000
    13    0.385992832808
    14   -0.000000001537
    15   -0.822389285276
    16   -0.121792791994
    17   -0.822389287355
    18   -0.121792791199
Sym=        a    
Ene=   0.25782592096092E+01
Spin=       Alpha
Occup=       0.0000000000
     1   -0.000000000083
     2   -0.000000000904
     3   -0.037233437063
     4    0.000000000169
     5   -0.000000000000
     6    0.000000003425
     7    0.845422455464
     8    0.000000002055
     9    0.000000000000
    10   -0.000000001889
    11   -0.000000000000
    12    0.000000000000
    13   -0.000000000158
    14    1.272019689535
    15   -0.924178708301
    16    0.049038069303
    17    0.924178704123
    18   -0.049038070152
